<?xml version="1.0" encoding="UTF-8"?>

<!-- generated on 2026-02-15T19:05:16.919976-06:00 by Eclipse SUMO GUI 1.26.0
<sumoConfiguration xmlns:xsi="http://www.w3.org/2001/XMLSchema-instance" xsi:noNamespaceSchemaLocation="http://sumo.dlr.de/xsd/sumoConfiguration.xsd">

    <input>
        <net-file value="C:\Users\sebas\2026-02-15-18-21-36\osm.net.xml.gz"/>
        <route-files value="C:\Users\sebas\2026-02-15-18-21-36\osm_pt.rou.xml,C:\Users\sebas\2026-02-15-18-21-36\osm.bus.trips.xml,C:\Users\sebas\2026-02-15-18-21-36\osm.motorcycle.trips.xml,C:\Users\sebas\2026-02-15-18-21-36\osm.passenger.trips.xml,C:\Users\sebas\2026-02-15-18-21-36\osm.truck.trips.xml"/>
        <additional-files value="C:\Users\sebas\2026-02-15-18-21-36\osm.poly.xml.gz,C:\Users\sebas\2026-02-15-18-21-36\osm_stops.add.xml,C:\Users\sebas\2026-02-15-18-21-36\output.add.xml"/>
    </input>

    <output>
        <tripinfo-output value="C:\Users\sebas\2026-02-15-18-21-36\tripinfos.xml"/>
        <stop-output value="C:\Users\sebas\2026-02-15-18-21-36\stopinfos.xml"/>
        <statistic-output value="C:\Users\sebas\2026-02-15-18-21-36\stats.xml"/>
    </output>

    <processing>
        <ignore-route-errors value="true"/>
        <tls.actuated.jam-threshold value="30"/>
    </processing>

    <routing>
        <device.rerouting.adaptation-steps value="18"/>
        <device.rerouting.adaptation-interval value="10"/>
    </routing>

    <report>
        <verbose value="true"/>
        <duration-log.statistics value="true"/>
        <no-step-log value="true"/>
    </report>

    <gui_only>
        <gui-settings-file value="C:\Users\sebas\2026-02-15-18-21-36\osm.view.xml"/>
    </gui_only>

</sumoConfiguration>
-->

<meandata xmlns:xsi="http://www.w3.org/2001/XMLSchema-instance" xsi:noNamespaceSchemaLocation="http://sumo.dlr.de/xsd/meandata_file.xsd">
    <interval begin="0.00" end="1603.00" id="wizard_example">
        <edge id="-1000972456" sampledSeconds="299.33" traveltime="8.30" overlapTraveltime="7.82" density="9.56" overlapDensity="10.44" laneDensity="9.56" occupancy="3.32" waitingTime="200.00" timeLoss="234.15" speed="2.73" speedRelative="0.20" departed="40" arrived="0" entered="5" left="45" laneChangedFrom="0" laneChangedTo="0" flow="74.13"/>
        <edge id="-1010365590" sampledSeconds="52.57" traveltime="12.47" overlapTraveltime="13.40" density="0.23" overlapDensity="0.24" laneDensity="0.23" occupancy="0.10" waitingTime="0.00" timeLoss="12.52" speed="10.37" speedRelative="0.75" departed="2" arrived="1" entered="2" left="3" laneChangedFrom="0" laneChangedTo="0" flow="8.81"/>
        <edge id="-1025593415" sampledSeconds="7115.40" traveltime="342.36" overlapTraveltime="359.91" density="119.56" overlapDensity="119.84" laneDensity="119.56" occupancy="51.07" waitingTime="6790.00" timeLoss="7055.19" speed="0.11" speedRelative="0.01" departed="5" arrived="1" entered="19" left="18" laneChangedFrom="0" laneChangedTo="0" teleported="3" flow="46.57"/>
        <edge id="-1025593425" sampledSeconds="11962.04" traveltime="173.61" overlapTraveltime="175.10" density="62.74" overlapDensity="62.94" laneDensity="62.74" occupancy="26.92" waitingTime="10766.00" timeLoss="11354.85" speed="0.70" speedRelative="0.05" departed="10" arrived="0" entered="68" left="60" laneChangedFrom="0" laneChangedTo="0" teleported="1" flow="154.23"/>
        <edge id="-1025593426#1" sampledSeconds="0.00" departed="0" arrived="0" entered="0" left="0" laneChangedFrom="0" laneChangedTo="0"/>
        <edge id="-1025593426#2" sampledSeconds="45.25" traveltime="0.04" overlapTraveltime="1.59" density="3.03" overlapDensity="141.14" laneDensity="3.03" occupancy="2.73" waitingTime="8.00" timeLoss="25.68" speed="2.78" speedRelative="0.20" departed="9" arrived="1" entered="22" left="30" laneChangedFrom="0" laneChangedTo="0" flow="49.41"/>
        <edge id="-1025593426#3" sampledSeconds="102.73" traveltime="4.16" overlapTraveltime="4.86" density="4.87" overlapDensity="5.80" laneDensity="4.87" occupancy="1.94" waitingTime="46.00" timeLoss="74.95" speed="3.09" speedRelative="0.22" departed="4" arrived="0" entered="18" left="22" laneChangedFrom="0" laneChangedTo="0" flow="46.54"/>
        <edge id="-1025593426#4" sampledSeconds="145.89" traveltime="6.04" overlapTraveltime="6.84" density="1.93" overlapDensity="2.18" laneDensity="1.93" occupancy="0.80" waitingTime="24.00" timeLoss="66.47" speed="6.71" speedRelative="0.48" departed="8" arrived="0" entered="14" left="21" laneChangedFrom="0" laneChangedTo="0" flow="48.06"/>
        <edge id="-1038934244#2" sampledSeconds="3885.81" traveltime="60.89" overlapTraveltime="63.33" density="23.58" overlapDensity="24.27" laneDensity="23.58" occupancy="10.96" waitingTime="2887.00" timeLoss="3390.69" speed="1.65" speedRelative="0.12" departed="7" arrived="0" entered="62" left="55" laneChangedFrom="0" laneChangedTo="0" flow="139.28"/>
        <edge id="-1038934246#0" sampledSeconds="0.00" departed="0" arrived="0" entered="0" left="0" laneChangedFrom="0" laneChangedTo="0"/>
        <edge id="-1038934246#1" sampledSeconds="0.00" departed="0" arrived="0" entered="0" left="0" laneChangedFrom="0" laneChangedTo="0"/>
        <edge id="-1038934246#2" sampledSeconds="0.00" departed="0" arrived="0" entered="0" left="0" laneChangedFrom="0" laneChangedTo="0"/>
        <edge id="-1038934246#3" sampledSeconds="0.00" departed="0" arrived="0" entered="0" left="0" laneChangedFrom="0" laneChangedTo="0"/>
        <edge id="-1038934247" sampledSeconds="74.69" traveltime="0.04" overlapTraveltime="1.57" density="6.14" overlapDensity="212.77" laneDensity="6.14" occupancy="4.53" waitingTime="19.00" timeLoss="56.52" speed="3.35" speedRelative="0.24" departed="13" arrived="1" entered="50" left="62" laneChangedFrom="0" laneChangedTo="0" flow="105.55"/>
        <edge id="-1043593931#0" sampledSeconds="3897.50" traveltime="53.17" overlapTraveltime="53.87" density="25.97" overlapDensity="26.28" laneDensity="25.97" occupancy="10.37" waitingTime="3145.00" timeLoss="3366.45" speed="1.79" speedRelative="0.13" departed="11" arrived="0" entered="69" left="66" laneChangedFrom="0" laneChangedTo="0" flow="162.66"/>
        <edge id="-1043593931#1" sampledSeconds="1348.54" traveltime="27.44" overlapTraveltime="32.40" density="10.75" overlapDensity="12.74" laneDensity="10.75" occupancy="5.35" waitingTime="1037.00" timeLoss="1130.26" speed="2.18" speedRelative="0.16" departed="46" arrived="0" entered="0" left="43" laneChangedFrom="0" laneChangedTo="0" flow="93.10"/>
        <edge id="-1043614982#3" sampledSeconds="543.53" traveltime="45.45" overlapTraveltime="50.54" density="3.63" overlapDensity="4.04" laneDensity="3.63" occupancy="1.41" waitingTime="403.00" timeLoss="458.84" speed="1.73" speedRelative="0.16" departed="6" arrived="0" entered="5" left="11" laneChangedFrom="0" laneChangedTo="0" flow="24.11"/>
        <edge id="-1043614983" sampledSeconds="9760.95" traveltime="452.08" overlapTraveltime="460.03" density="69.30" overlapDensity="69.46" laneDensity="69.30" occupancy="32.47" waitingTime="9158.00" timeLoss="9612.88" speed="0.20" speedRelative="0.01" departed="5" arrived="0" entered="18" left="17" laneChangedFrom="0" laneChangedTo="0" teleported="2" flow="48.38"/>
        <edge id="-1043614984#1" sampledSeconds="459.54" traveltime="10.82" overlapTraveltime="11.41" density="3.24" overlapDensity="3.41" laneDensity="3.24" occupancy="1.62" waitingTime="125.00" timeLoss="285.99" speed="7.82" speedRelative="0.35" departed="9" arrived="1" entered="32" left="39" laneChangedFrom="0" laneChangedTo="0" flow="90.79"/>
        <edge id="-104725393" sampledSeconds="0.00" departed="0" arrived="0" entered="0" left="0" laneChangedFrom="0" laneChangedTo="0"/>
        <edge id="-1049439418" sampledSeconds="317.93" traveltime="15.29" overlapTraveltime="16.40" density="2.15" overlapDensity="2.30" laneDensity="2.15" occupancy="1.00" waitingTime="92.00" timeLoss="186.89" speed="5.53" speedRelative="0.40" departed="9" arrived="1" entered="11" left="19" laneChangedFrom="0" laneChangedTo="0" flow="43.67"/>
        <edge id="-107509165#4" sampledSeconds="0.00" departed="0" arrived="0" entered="0" left="0" laneChangedFrom="0" laneChangedTo="0"/>
        <edge id="-107524357#0" sampledSeconds="21.44" traveltime="3.55" overlapTraveltime="4.34" density="0.28" overlapDensity="0.34" laneDensity="0.28" occupancy="0.09" waitingTime="0.00" timeLoss="3.82" speed="9.87" speedRelative="0.71" departed="0" arrived="1" entered="5" left="4" laneChangedFrom="0" laneChangedTo="0" flow="11.23"/>
        <edge id="-107524357#1" sampledSeconds="849.58" traveltime="57.23" overlapTraveltime="57.95" density="2.15" overlapDensity="2.16" laneDensity="2.15" occupancy="0.84" waitingTime="526.00" timeLoss="593.51" speed="4.30" speedRelative="0.31" departed="14" arrived="0" entered="3" left="10" laneChangedFrom="0" laneChangedTo="0" flow="33.20"/>
        <edge id="-108299008" sampledSeconds="864.43" traveltime="21.96" overlapTraveltime="28.61" density="2.12" overlapDensity="2.77" laneDensity="2.12" occupancy="1.01" waitingTime="279.00" timeLoss="420.02" speed="6.95" speedRelative="0.50" departed="10" arrived="0" entered="21" left="30" laneChangedFrom="0" laneChangedTo="0" flow="67.79"/>
        <edge id="-108457413#2" sampledSeconds="253.95" traveltime="12.12" overlapTraveltime="28.31" density="0.51" overlapDensity="1.20" laneDensity="0.51" occupancy="0.58" waitingTime="121.00" timeLoss="156.49" speed="4.91" speedRelative="0.35" departed="0" arrived="0" entered="9" left="9" laneChangedFrom="0" laneChangedTo="0" flow="20.21"/>
        <edge id="-108524368" sampledSeconds="13.10" traveltime="6.39" overlapTraveltime="6.55" density="0.10" overlapDensity="0.11" laneDensity="0.10" occupancy="0.02" waitingTime="0.00" timeLoss="2.56" speed="12.18" speedRelative="0.88" departed="0" arrived="2" entered="2" left="0" laneChangedFrom="0" laneChangedTo="0" flow="4.49"/>
        <edge id="-108852986" sampledSeconds="6.31" traveltime="5.95" overlapTraveltime="6.31" density="0.05" overlapDensity="0.05" laneDensity="0.05" occupancy="0.02" waitingTime="0.00" timeLoss="1.08" speed="12.35" speedRelative="0.89" departed="0" arrived="1" entered="1" left="0" laneChangedFrom="0" laneChangedTo="0" flow="2.25"/>
        <edge id="-108853038" sampledSeconds="0.00" departed="0" arrived="0" entered="0" left="0" laneChangedFrom="0" laneChangedTo="0"/>
        <edge id="-108853039#0" sampledSeconds="4090.32" traveltime="47.46" overlapTraveltime="51.62" density="112.02" overlapDensity="123.21" laneDensity="112.02" occupancy="47.65" waitingTime="3728.07" timeLoss="3998.89" speed="0.49" speedRelative="0.02" departed="3" arrived="0" entered="88" left="88" laneChangedFrom="0" laneChangedTo="0" teleported="1" flow="175.98"/>
        <edge id="-108853039#1" sampledSeconds="3710.19" traveltime="50.77" overlapTraveltime="52.50" density="100.98" overlapDensity="102.23" laneDensity="100.98" occupancy="50.12" waitingTime="3379.00" timeLoss="3619.66" speed="0.53" speedRelative="0.02" departed="8" arrived="0" entered="74" left="79" laneChangedFrom="0" laneChangedTo="0" teleported="2" flow="162.09"/>
        <edge id="-108853039#2" sampledSeconds="5496.57" traveltime="174.36" overlapTraveltime="176.64" density="57.18" overlapDensity="57.57" laneDensity="57.18" occupancy="26.28" waitingTime="5058.00" timeLoss="5399.21" speed="0.36" speedRelative="0.02" departed="10" arrived="0" entered="29" left="30" laneChangedFrom="0" laneChangedTo="0" flow="70.32"/>
        <edge id="-108853039#3" sampledSeconds="3699.00" traveltime="170.73" overlapTraveltime="187.08" density="46.20" overlapDensity="50.50" laneDensity="46.20" occupancy="21.26" waitingTime="3496.00" timeLoss="3650.19" speed="0.27" speedRelative="0.01" departed="6" arrived="1" entered="21" left="19" laneChangedFrom="0" laneChangedTo="0" flow="44.51"/>
        <edge id="-108853039#4" sampledSeconds="5096.56" traveltime="227.18" overlapTraveltime="230.59" density="37.01" overlapDensity="37.14" laneDensity="37.01" occupancy="17.03" waitingTime="4775.00" timeLoss="5001.80" speed="0.39" speedRelative="0.02" departed="9" arrived="0" entered="16" left="17" laneChangedFrom="0" laneChangedTo="0" teleported="1" flow="50.20"/>
        <edge id="-108853039#5" sampledSeconds="837.30" traveltime="37.68" overlapTraveltime="38.58" density="9.34" overlapDensity="9.59" laneDensity="9.34" occupancy="3.89" waitingTime="687.00" timeLoss="774.56" speed="1.52" speedRelative="0.07" departed="5" arrived="0" entered="17" left="22" laneChangedFrom="0" laneChangedTo="0" flow="48.59"/>
        <edge id="-1089787335" sampledSeconds="13217.93" traveltime="180.32" overlapTraveltime="189.89" density="84.34" overlapDensity="88.30" laneDensity="42.17" occupancy="18.41" waitingTime="11458.00" timeLoss="12956.02" speed="0.51" speedRelative="0.02" departed="8" arrived="1" entered="73" left="68" laneChangedFrom="7" laneChangedTo="7" flow="157.25"/>
        <edge id="-1092769054#0" sampledSeconds="20466.68" traveltime="613.80" overlapTraveltime="616.26" density="146.65" overlapDensity="146.81" laneDensity="146.65" occupancy="45.28" waitingTime="19564.00" timeLoss="20242.31" speed="0.15" speedRelative="0.01" departed="9" arrived="0" entered="31" left="26" laneChangedFrom="0" laneChangedTo="0" teleported="2" flow="74.81"/>
        <edge id="-1092769054#1" sampledSeconds="4224.23" traveltime="99.64" overlapTraveltime="115.68" density="50.65" overlapDensity="58.30" laneDensity="50.65" occupancy="21.51" waitingTime="3978.00" timeLoss="4087.52" speed="0.42" speedRelative="0.03" departed="12" arrived="0" entered="31" left="37" laneChangedFrom="0" laneChangedTo="0" flow="82.72"/>
        <edge id="-1092769055" sampledSeconds="2581.31" traveltime="105.30" overlapTraveltime="107.39" density="45.11" overlapDensity="46.02" laneDensity="45.11" occupancy="24.27" waitingTime="2370.00" timeLoss="2503.35" speed="0.38" speedRelative="0.03" departed="30" arrived="0" entered="0" left="26" laneChangedFrom="0" laneChangedTo="0" flow="53.96"/>
        <edge id="-109789190#0" sampledSeconds="458.70" traveltime="10.01" overlapTraveltime="10.55" density="4.22" overlapDensity="4.42" laneDensity="4.22" occupancy="2.00" waitingTime="137.00" timeLoss="231.96" speed="6.58" speedRelative="0.47" departed="14" arrived="5" entered="31" left="38" laneChangedFrom="0" laneChangedTo="0" flow="98.20"/>
        <edge id="-109789190#1" sampledSeconds="96.23" traveltime="7.22" overlapTraveltime="7.56" density="0.81" overlapDensity="0.85" laneDensity="0.81" occupancy="0.28" waitingTime="0.00" timeLoss="24.82" speed="9.80" speedRelative="0.71" departed="4" arrived="0" entered="9" left="13" laneChangedFrom="0" laneChangedTo="0" flow="28.56"/>
        <edge id="-111285733#1" sampledSeconds="8795.10" traveltime="49.70" overlapTraveltime="48.96" density="131.54" overlapDensity="133.40" laneDensity="131.54" occupancy="45.06" waitingTime="7462.00" timeLoss="8063.59" speed="0.91" speedRelative="0.08" departed="1" arrived="0" entered="268" left="254" laneChangedFrom="0" laneChangedTo="0" flow="391.94"/>
        <edge id="-111285735" sampledSeconds="2474.89" traveltime="9.30" overlapTraveltime="13.22" density="110.17" overlapDensity="171.55" laneDensity="110.17" occupancy="47.28" waitingTime="2088.00" timeLoss="2256.87" speed="0.97" speedRelative="0.09" departed="1" arrived="0" entered="254" left="239" laneChangedFrom="0" laneChangedTo="0" flow="383.65"/>
        <edge id="-111285865" sampledSeconds="5.80" traveltime="5.60" overlapTraveltime="5.80" density="0.07" overlapDensity="0.07" laneDensity="0.07" occupancy="0.01" waitingTime="0.00" timeLoss="1.26" speed="9.32" speedRelative="0.67" departed="0" arrived="1" entered="1" left="0" laneChangedFrom="0" laneChangedTo="0" flow="2.25"/>
        <edge id="-1122591428#0" sampledSeconds="0.00" departed="0" arrived="0" entered="0" left="0" laneChangedFrom="0" laneChangedTo="0"/>
        <edge id="-1122591428#1" sampledSeconds="0.00" departed="0" arrived="0" entered="0" left="0" laneChangedFrom="0" laneChangedTo="0"/>
        <edge id="-1122686638" sampledSeconds="0.00" departed="0" arrived="0" entered="0" left="0" laneChangedFrom="0" laneChangedTo="0"/>
        <edge id="-112450394#0" sampledSeconds="670.69" traveltime="8.26" overlapTraveltime="9.14" density="5.83" overlapDensity="6.43" laneDensity="5.83" occupancy="2.50" waitingTime="69.00" timeLoss="272.47" speed="7.58" speedRelative="0.55" departed="8" arrived="1" entered="66" left="73" laneChangedFrom="0" laneChangedTo="0" flow="165.26"/>
        <edge id="-112450394#1" sampledSeconds="299.96" traveltime="5.14" overlapTraveltime="5.56" density="3.67" overlapDensity="3.96" laneDensity="3.67" occupancy="1.55" waitingTime="0.00" timeLoss="95.98" speed="9.28" speedRelative="0.67" departed="9" arrived="1" entered="46" left="54" laneChangedFrom="0" laneChangedTo="0" flow="121.50"/>
        <edge id="-1136414477" sampledSeconds="773.24" traveltime="51.71" overlapTraveltime="56.31" density="5.05" overlapDensity="5.54" laneDensity="5.05" occupancy="1.99" waitingTime="568.00" timeLoss="651.71" speed="1.61" speedRelative="0.15" departed="7" arrived="0" entered="7" left="14" laneChangedFrom="0" laneChangedTo="0" flow="30.61"/>
        <edge id="-1137261349#0" sampledSeconds="33.82" traveltime="0.94" overlapTraveltime="2.25" density="22.94" overlapDensity="91.73" laneDensity="22.94" occupancy="2.06" waitingTime="8.00" timeLoss="19.69" speed="2.54" speedRelative="0.18" departed="11" arrived="1" entered="9" left="19" laneChangedFrom="0" laneChangedTo="0" flow="20.21"/>
        <edge id="-1137261349#1" sampledSeconds="424.18" traveltime="46.20" overlapTraveltime="46.83" density="0.55" overlapDensity="0.56" laneDensity="0.55" occupancy="0.25" waitingTime="48.00" timeLoss="109.96" speed="10.27" speedRelative="0.74" departed="7" arrived="0" entered="3" left="9" laneChangedFrom="0" laneChangedTo="0" flow="20.35"/>
        <edge id="-1137261349#2" sampledSeconds="26221.29" traveltime="1223.91" overlapTraveltime="1248.62" density="80.50" overlapDensity="80.54" laneDensity="80.50" occupancy="41.35" waitingTime="24920.00" timeLoss="25897.78" speed="0.17" speedRelative="0.01" departed="11" arrived="0" entered="24" left="9" laneChangedFrom="0" laneChangedTo="0" teleported="3" flow="48.09"/>
        <edge id="-1137261349#3" sampledSeconds="904.76" traveltime="41.78" overlapTraveltime="42.70" density="2.26" overlapDensity="2.30" laneDensity="2.26" occupancy="0.79" waitingTime="379.00" timeLoss="506.84" speed="5.82" speedRelative="0.42" departed="7" arrived="0" entered="15" left="21" laneChangedFrom="0" laneChangedTo="0" flow="47.63"/>
        <edge id="-1137261350" sampledSeconds="9620.84" traveltime="334.14" overlapTraveltime="373.59" density="35.81" overlapDensity="39.51" laneDensity="35.81" occupancy="16.14" waitingTime="8946.00" timeLoss="9318.68" speed="0.42" speedRelative="0.03" departed="7" arrived="0" entered="22" left="18" laneChangedFrom="0" laneChangedTo="0" flow="58.61"/>
        <edge id="-1137557390#0" sampledSeconds="10711.17" traveltime="266.15" overlapTraveltime="269.06" density="79.13" overlapDensity="79.40" laneDensity="79.13" occupancy="33.41" waitingTime="9900.00" timeLoss="10443.57" speed="0.33" speedRelative="0.02" departed="8" arrived="0" entered="40" left="34" laneChangedFrom="0" laneChangedTo="0" teleported="2" flow="90.08"/>
        <edge id="-1137557390#1" sampledSeconds="4215.50" traveltime="70.42" overlapTraveltime="71.67" density="30.43" overlapDensity="30.64" laneDensity="30.43" occupancy="15.32" waitingTime="3586.00" timeLoss="3821.30" speed="1.27" speedRelative="0.09" departed="10" arrived="0" entered="56" left="54" laneChangedFrom="0" laneChangedTo="0" flow="133.49"/>
        <edge id="-1138574867" sampledSeconds="318.05" traveltime="20.69" overlapTraveltime="21.83" density="1.95" overlapDensity="2.06" laneDensity="1.95" occupancy="0.92" waitingTime="82.00" timeLoss="135.63" speed="4.63" speedRelative="0.56" departed="8" arrived="1" entered="7" left="14" laneChangedFrom="0" laneChangedTo="0" flow="32.74"/>
        <edge id="-1153918348#1" sampledSeconds="22804.40" traveltime="942.18" overlapTraveltime="956.90" density="75.47" overlapDensity="75.49" laneDensity="75.47" occupancy="32.65" waitingTime="21598.00" timeLoss="22468.82" speed="0.20" speedRelative="0.01" departed="5" arrived="0" entered="25" left="12" laneChangedFrom="0" laneChangedTo="0" teleported="4" flow="54.34"/>
        <edge id="-1156460316" sampledSeconds="5605.57" traveltime="551.99" overlapTraveltime="576.64" density="94.08" overlapDensity="94.33" laneDensity="94.08" occupancy="47.30" waitingTime="5431.00" timeLoss="5574.94" speed="0.07" speedRelative="0.01" departed="14" arrived="0" entered="0" left="9" laneChangedFrom="0" laneChangedTo="0" teleported="1" flow="22.75"/>
        <edge id="-1156686443" sampledSeconds="270.02" traveltime="14.43" overlapTraveltime="32.69" density="1.74" overlapDensity="3.95" laneDensity="1.74" occupancy="1.92" waitingTime="183.00" timeLoss="236.70" speed="1.50" speedRelative="0.11" departed="6" arrived="0" entered="3" left="9" laneChangedFrom="0" laneChangedTo="0" flow="18.49"/>
        <edge id="-1156686444#0" sampledSeconds="8218.51" traveltime="347.32" overlapTraveltime="418.96" density="122.88" overlapDensity="148.18" laneDensity="122.88" occupancy="58.63" waitingTime="7814.00" timeLoss="8153.45" speed="0.09" speedRelative="0.01" departed="3" arrived="0" entered="36" left="34" laneChangedFrom="0" laneChangedTo="0" flow="44.07"/>
        <edge id="-1156686444#1" sampledSeconds="2193.33" traveltime="244.32" overlapTraveltime="227.70" density="129.51" overlapDensity="129.94" laneDensity="129.51" occupancy="44.78" waitingTime="2141.00" timeLoss="2182.72" speed="0.06" speedRelative="0.00" departed="9" arrived="0" entered="5" left="12" laneChangedFrom="0" laneChangedTo="0" teleported="2" flow="20.09"/>
        <edge id="-1156686445#1" sampledSeconds="37.44" traveltime="2.68" overlapTraveltime="4.18" density="0.63" overlapDensity="0.99" laneDensity="0.63" occupancy="0.34" waitingTime="0.00" timeLoss="11.81" speed="6.75" speedRelative="0.49" departed="0" arrived="1" entered="9" left="8" laneChangedFrom="0" laneChangedTo="0" flow="20.21"/>
        <edge id="-1156690367" sampledSeconds="0.00" departed="0" arrived="0" entered="0" left="0" laneChangedFrom="0" laneChangedTo="0"/>
        <edge id="-1156703988" sampledSeconds="952.32" traveltime="24.34" overlapTraveltime="43.72" density="7.66" overlapDensity="13.56" laneDensity="7.66" occupancy="4.89" waitingTime="824.00" timeLoss="874.92" speed="1.11" speedRelative="0.08" departed="7" arrived="0" entered="16" left="21" laneChangedFrom="0" laneChangedTo="0" flow="49.63"/>
        <edge id="-1156711427" sampledSeconds="2438.47" traveltime="104.44" overlapTraveltime="108.24" density="55.02" overlapDensity="55.44" laneDensity="55.02" occupancy="31.81" waitingTime="2272.00" timeLoss="2384.33" speed="0.31" speedRelative="0.02" departed="19" arrived="0" entered="9" left="25" laneChangedFrom="0" laneChangedTo="0" teleported="1" flow="52.04"/>
        <edge id="-1156769666" sampledSeconds="6217.27" traveltime="206.52" overlapTraveltime="206.64" density="93.45" overlapDensity="93.84" laneDensity="93.45" occupancy="43.23" waitingTime="5860.00" timeLoss="6105.37" speed="0.22" speedRelative="0.02" departed="37" arrived="0" entered="0" left="31" laneChangedFrom="0" laneChangedTo="0" teleported="3" flow="67.32"/>
        <edge id="-1157942523" sampledSeconds="2336.50" traveltime="76.41" overlapTraveltime="91.69" density="12.38" overlapDensity="14.49" laneDensity="12.38" occupancy="9.72" waitingTime="1925.00" timeLoss="2126.51" speed="1.17" speedRelative="0.08" departed="7" arrived="0" entered="24" left="22" laneChangedFrom="0" laneChangedTo="0" flow="58.67"/>
        <edge id="-1158009758#1" sampledSeconds="7767.37" traveltime="56.74" overlapTraveltime="58.41" density="91.44" overlapDensity="93.78" laneDensity="91.44" occupancy="43.04" waitingTime="6147.00" timeLoss="7145.62" speed="0.96" speedRelative="0.07" departed="8" arrived="0" entered="129" left="130" laneChangedFrom="0" laneChangedTo="0" teleported="1" flow="299.74"/>
        <edge id="-1158009758#2" sampledSeconds="4891.93" traveltime="40.71" overlapTraveltime="41.46" density="42.27" overlapDensity="42.97" laneDensity="42.27" occupancy="19.79" waitingTime="3252.00" timeLoss="4236.04" speed="1.83" speedRelative="0.13" departed="9" arrived="0" entered="111" left="115" laneChangedFrom="0" laneChangedTo="0" flow="265.46"/>
        <edge id="-1158011490" sampledSeconds="13424.09" traveltime="164.74" overlapTraveltime="167.10" density="62.12" overlapDensity="62.45" laneDensity="62.12" occupancy="32.92" waitingTime="11712.00" timeLoss="12604.92" speed="0.83" speedRelative="0.06" departed="4" arrived="2" entered="85" left="70" laneChangedFrom="0" laneChangedTo="0" teleported="1" flow="182.03"/>
        <edge id="-1158026720" sampledSeconds="34.18" traveltime="3.66" overlapTraveltime="4.92" density="0.58" overlapDensity="0.77" laneDensity="0.58" occupancy="0.23" waitingTime="0.00" timeLoss="12.12" speed="6.37" speedRelative="0.46" departed="0" arrived="1" entered="7" left="6" laneChangedFrom="0" laneChangedTo="0" flow="15.72"/>
        <edge id="-1158529096" sampledSeconds="4936.01" traveltime="553.50" overlapTraveltime="634.71" density="143.39" overlapDensity="143.49" laneDensity="143.39" occupancy="49.99" waitingTime="4828.00" timeLoss="4921.20" speed="0.04" speedRelative="0.00" departed="2" arrived="0" entered="9" left="7" laneChangedFrom="0" laneChangedTo="0" teleported="4" flow="20.01"/>
        <edge id="-1164229628" sampledSeconds="12032.69" traveltime="84.87" overlapTraveltime="86.64" density="200.95" overlapDensity="203.15" laneDensity="100.47" occupancy="44.15" waitingTime="10750.00" timeLoss="11797.43" speed="0.48" speedRelative="0.02" departed="12" arrived="0" entered="138" left="137" laneChangedFrom="27" laneChangedTo="27" teleported="2" flow="314.96"/>
        <edge id="-1164501205" sampledSeconds="1.93" traveltime="1.87" overlapTraveltime="2.36" density="0.06" overlapDensity="0.06" laneDensity="0.06" occupancy="0.03" waitingTime="0.00" timeLoss="0.16" speed="10.20" speedRelative="0.92" departed="0" arrived="1" entered="1" left="0" laneChangedFrom="0" laneChangedTo="0" flow="2.25"/>
        <edge id="-1165309795" sampledSeconds="1978.04" traveltime="108.74" overlapTraveltime="109.78" density="96.57" overlapDensity="97.55" laneDensity="96.57" occupancy="44.16" waitingTime="1886.00" timeLoss="1949.39" speed="0.16" speedRelative="0.01" departed="13" arrived="0" entered="10" left="21" laneChangedFrom="0" laneChangedTo="0" teleported="2" flow="40.44"/>
        <edge id="-1166159361" sampledSeconds="166.56" traveltime="16.74" overlapTraveltime="17.05" density="0.56" overlapDensity="0.57" laneDensity="0.56" occupancy="0.24" waitingTime="0.00" timeLoss="33.00" speed="10.86" speedRelative="0.78" departed="10" arrived="0" entered="0" left="10" laneChangedFrom="0" laneChangedTo="0" flow="21.93"/>
        <edge id="-1167991360" sampledSeconds="243.64" traveltime="10.10" overlapTraveltime="11.22" density="3.00" overlapDensity="3.33" laneDensity="3.00" occupancy="1.52" waitingTime="55.00" timeLoss="153.93" speed="4.50" speedRelative="0.32" departed="11" arrived="2" entered="12" left="21" laneChangedFrom="0" laneChangedTo="0" flow="48.82"/>
        <edge id="-1168153039#2" sampledSeconds="477.98" traveltime="22.64" overlapTraveltime="23.90" density="1.07" overlapDensity="1.12" laneDensity="1.07" occupancy="0.46" waitingTime="0.00" timeLoss="77.92" speed="11.28" speedRelative="0.81" departed="0" arrived="2" entered="20" left="18" laneChangedFrom="0" laneChangedTo="0" flow="44.92"/>
        <edge id="-1169204483" sampledSeconds="29.76" traveltime="3.57" overlapTraveltime="5.00" density="0.70" overlapDensity="0.97" laneDensity="0.70" occupancy="0.30" waitingTime="0.00" timeLoss="13.95" speed="4.69" speedRelative="0.34" departed="0" arrived="0" entered="6" left="6" laneChangedFrom="0" laneChangedTo="0" flow="13.47"/>
        <edge id="-1174311037" sampledSeconds="462.61" traveltime="15.34" overlapTraveltime="16.35" density="4.22" overlapDensity="4.53" laneDensity="4.22" occupancy="2.28" waitingTime="271.00" timeLoss="303.16" speed="4.22" speedRelative="0.30" departed="31" arrived="0" entered="0" left="29" laneChangedFrom="0" laneChangedTo="0" flow="63.07"/>
        <edge id="-1177320054" sampledSeconds="114.73" traveltime="8.05" overlapTraveltime="9.61" density="0.81" overlapDensity="0.96" laneDensity="0.81" occupancy="0.45" waitingTime="0.00" timeLoss="37.76" speed="8.34" speedRelative="0.60" departed="0" arrived="0" entered="12" left="12" laneChangedFrom="0" laneChangedTo="0" flow="26.95"/>
        <edge id="-117841420" sampledSeconds="6087.64" traveltime="361.27" overlapTraveltime="370.04" density="78.77" overlapDensity="79.00" laneDensity="78.77" occupancy="41.90" waitingTime="5828.00" timeLoss="6017.58" speed="0.14" speedRelative="0.01" departed="22" arrived="0" entered="1" left="16" laneChangedFrom="0" laneChangedTo="0" teleported="2" flow="37.73"/>
        <edge id="-117841432" sampledSeconds="4667.47" traveltime="219.19" overlapTraveltime="222.83" density="22.49" overlapDensity="22.60" laneDensity="22.49" occupancy="11.78" waitingTime="4257.00" timeLoss="4463.65" speed="0.60" speedRelative="0.04" departed="25" arrived="0" entered="0" left="15" laneChangedFrom="0" laneChangedTo="0" flow="47.59"/>
        <edge id="-117849331#0" sampledSeconds="5464.37" traveltime="448.55" overlapTraveltime="471.89" density="60.48" overlapDensity="60.56" laneDensity="60.48" occupancy="31.46" waitingTime="5261.00" timeLoss="5411.25" speed="0.13" speedRelative="0.01" departed="10" arrived="0" entered="5" left="9" laneChangedFrom="0" laneChangedTo="0" teleported="3" flow="27.32"/>