<?xml version="1.0" encoding="UTF-8"?>

<!-- generated on 2026-02-15T19:05:14.872079-06:00 by Eclipse SUMO GUI 1.26.0
<sumoConfiguration xmlns:xsi="http://www.w3.org/2001/XMLSchema-instance" xsi:noNamespaceSchemaLocation="http://sumo.dlr.de/xsd/sumoConfiguration.xsd">

    <input>
        <net-file value="C:\Users\sebas\2026-02-15-18-21-36\osm.net.xml.gz"/>
        <route-files value="C:\Users\sebas\2026-02-15-18-21-36\osm_pt.rou.xml,C:\Users\sebas\2026-02-15-18-21-36\osm.bus.trips.xml,C:\Users\sebas\2026-02-15-18-21-36\osm.motorcycle.trips.xml,C:\Users\sebas\2026-02-15-18-21-36\osm.passenger.trips.xml,C:\Users\sebas\2026-02-15-18-21-36\osm.truck.trips.xml"/>
        <additional-files value="C:\Users\sebas\2026-02-15-18-21-36\osm.poly.xml.gz,C:\Users\sebas\2026-02-15-18-21-36\osm_stops.add.xml,C:\Users\sebas\2026-02-15-18-21-36\output.add.xml"/>
    </input>

    <output>
        <tripinfo-output value="C:\Users\sebas\2026-02-15-18-21-36\tripinfos.xml"/>
        <stop-output value="C:\Users\sebas\2026-02-15-18-21-36\stopinfos.xml"/>
        <statistic-output value="C:\Users\sebas\2026-02-15-18-21-36\stats.xml"/>
    </output>

    <processing>
        <ignore-route-errors value="true"/>
        <tls.actuated.jam-threshold value="30"/>
    </processing>

    <routing>
        <device.rerouting.adaptation-steps value="18"/>
        <device.rerouting.adaptation-interval value="10"/>
    </routing>

    <report>
        <verbose value="true"/>
        <duration-log.statistics value="true"/>
        <no-step-log value="true"/>
    </report>

    <gui_only>
        <gui-settings-file value="C:\Users\sebas\2026-02-15-18-21-36\osm.view.xml"/>
    </gui_only>

</sumoConfiguration>
-->

<tripinfos xmlns:xsi="http://www.w3.org/2001/XMLSchema-instance" xsi:noNamespaceSchemaLocation="http://sumo.dlr.de/xsd/tripinfo_file.xsd">
    <tripinfo id="motorcycle85" depart="6.00" departLane="417428653_0" departPos="2.30" departSpeed="0.00" departDelay="0.19" arrival="28.00" arrivalLane="-417428653_0" arrivalPos="103.33" arrivalSpeed="13.49" duration="22.00" routeLength="210.14" waitingTime="0.00" waitingCount="0" stopTime="0.00" timeLoss="5.81" rerouteNo="0" devices="tripinfo_motorcycle85 routing_motorcycle85" vType="motorcycle_motorcycle" speedFactor="1.02" vaporized=""/>
    <tripinfo id="motorcycle170" depart="12.00" departLane="-202426823_0" departPos="2.30" departSpeed="13.28" departDelay="0.39" arrival="31.00" arrivalLane="-473662144#4_0" arrivalPos="39.93" arrivalSpeed="10.04" duration="19.00" routeLength="158.32" waitingTime="0.00" waitingCount="0" stopTime="0.00" timeLoss="4.30" rerouteNo="1" devices="tripinfo_motorcycle170 routing_motorcycle170" vType="motorcycle_motorcycle" speedFactor="0.96" vaporized=""/>
    <tripinfo id="motorcycle245" depart="17.00" departLane="25115487#0_0" departPos="2.30" departSpeed="15.44" departDelay="0.26" arrival="33.00" arrivalLane="-25115491#0_0" arrivalPos="67.17" arrivalSpeed="14.22" duration="16.00" routeLength="181.20" waitingTime="0.00" waitingCount="0" stopTime="0.00" timeLoss="2.98" rerouteNo="1" devices="tripinfo_motorcycle245 routing_motorcycle245" vType="motorcycle_motorcycle" speedFactor="1.11" vaporized=""/>
    <tripinfo id="motorcycle390" depart="28.00" departLane="25342861#3_0" departPos="2.30" departSpeed="0.00" departDelay="1.36" arrival="35.00" arrivalLane="25342861#3_0" arrivalPos="85.83" arrivalSpeed="15.26" duration="7.00" routeLength="83.53" waitingTime="0.00" waitingCount="0" stopTime="0.00" timeLoss="1.61" rerouteNo="1" devices="tripinfo_motorcycle390 routing_motorcycle390" vType="motorcycle_motorcycle" speedFactor="1.19" vaporized=""/>
    <tripinfo id="motorcycle29" depart="2.00" departLane="-366207709#3_0" departPos="2.30" departSpeed="0.00" departDelay="0.02" arrival="39.00" arrivalLane="-366207736#3_0" arrivalPos="95.24" arrivalSpeed="15.46" duration="37.00" routeLength="456.00" waitingTime="0.00" waitingCount="0" stopTime="0.00" timeLoss="8.04" rerouteNo="1" devices="tripinfo_motorcycle29 routing_motorcycle29" vType="motorcycle_motorcycle" speedFactor="1.17" vaporized=""/>
    <tripinfo id="motorcycle55" depart="4.00" departLane="298488305#10_0" departPos="2.30" departSpeed="0.00" departDelay="0.24" arrival="40.00" arrivalLane="25373474#2_0" arrivalPos="93.58" arrivalSpeed="10.81" duration="36.00" routeLength="371.21" waitingTime="0.00" waitingCount="0" stopTime="0.00" timeLoss="8.42" rerouteNo="1" devices="tripinfo_motorcycle55 routing_motorcycle55" vType="motorcycle_motorcycle" speedFactor="0.97" vaporized=""/>
    <tripinfo id="motorcycle548" depart="39.00" departLane="-25094071#10_0" departPos="0.20" departSpeed="0.00" departDelay="1.56" arrival="40.00" arrivalLane="-25094071#10_0" arrivalPos="0.20" arrivalSpeed="5.92" duration="1.00" routeLength="0.00" waitingTime="0.00" waitingCount="0" stopTime="0.00" timeLoss="0.58" rerouteNo="1" devices="tripinfo_motorcycle548 routing_motorcycle548" vType="motorcycle_motorcycle" speedFactor="1.02" vaporized=""/>
    <tripinfo id="motorcycle99" depart="7.00" departLane="1196915551_0" departPos="2.30" departSpeed="0.00" departDelay="0.24" arrival="43.00" arrivalLane="298977074#2_0" arrivalPos="92.99" arrivalSpeed="20.41" duration="36.00" routeLength="455.27" waitingTime="0.00" waitingCount="0" stopTime="0.00" timeLoss="10.28" rerouteNo="1" devices="tripinfo_motorcycle99 routing_motorcycle99" vType="motorcycle_motorcycle" speedFactor="0.95" vaporized=""/>
    <tripinfo id="motorcycle361" depart="25.00" departLane="16158892#2_0" departPos="2.30" departSpeed="0.00" departDelay="0.34" arrival="47.00" arrivalLane="1198418497#0_0" arrivalPos="87.53" arrivalSpeed="24.20" duration="22.00" routeLength="306.16" waitingTime="0.00" waitingCount="0" stopTime="0.00" timeLoss="7.44" rerouteNo="1" devices="tripinfo_motorcycle361 routing_motorcycle361" vType="motorcycle_motorcycle" speedFactor="1.12" vaporized=""/>
    <tripinfo id="motorcycle2" depart="1.00" departLane="194381752_0" departPos="2.30" departSpeed="14.53" departDelay="0.86" arrival="48.00" arrivalLane="194381725_0" arrivalPos="31.70" arrivalSpeed="11.61" duration="47.00" routeLength="572.78" waitingTime="0.00" waitingCount="0" stopTime="0.00" timeLoss="6.63" rerouteNo="1" devices="tripinfo_motorcycle2 routing_motorcycle2" vType="motorcycle_motorcycle" speedFactor="1.05" vaporized=""/>
    <tripinfo id="motorcycle18" depart="2.00" departLane="25401139#3_0" departPos="2.30" departSpeed="0.00" departDelay="0.77" arrival="48.00" arrivalLane="25097110#4_0" arrivalPos="41.25" arrivalSpeed="10.52" duration="46.00" routeLength="464.05" waitingTime="0.00" waitingCount="0" stopTime="0.00" timeLoss="15.49" rerouteNo="1" devices="tripinfo_motorcycle18 routing_motorcycle18" vType="motorcycle_motorcycle" speedFactor="0.97" vaporized=""/>
    <tripinfo id="motorcycle308" depart="22.00" departLane="25115493#2_0" departPos="2.30" departSpeed="0.00" departDelay="0.96" arrival="49.00" arrivalLane="260806528#3_0" arrivalPos="39.00" arrivalSpeed="14.86" duration="27.00" routeLength="295.06" waitingTime="0.00" waitingCount="0" stopTime="0.00" timeLoss="6.05" rerouteNo="1" devices="tripinfo_motorcycle308 routing_motorcycle308" vType="motorcycle_motorcycle" speedFactor="1.11" vaporized=""/>
    <tripinfo id="motorcycle236" depart="17.00" departLane="66052725#1_0" departPos="2.30" departSpeed="0.00" departDelay="0.88" arrival="52.00" arrivalLane="300747261_0" arrivalPos="90.83" arrivalSpeed="12.32" duration="35.00" routeLength="332.15" waitingTime="0.00" waitingCount="0" stopTime="0.00" timeLoss="10.68" rerouteNo="1" devices="tripinfo_motorcycle236 routing_motorcycle236" vType="motorcycle_motorcycle" speedFactor="0.95" vaporized=""/>
    <tripinfo id="motorcycle508" depart="35.00" departLane="318883604_0" departPos="2.30" departSpeed="15.19" departDelay="0.30" arrival="52.00" arrivalLane="1370761548_0" arrivalPos="36.89" arrivalSpeed="14.92" duration="17.00" routeLength="172.46" waitingTime="0.00" waitingCount="0" stopTime="0.00" timeLoss="4.14" rerouteNo="1" devices="tripinfo_motorcycle508 routing_motorcycle508" vType="motorcycle_motorcycle" speedFactor="1.09" vaporized=""/>
    <tripinfo id="motorcycle555" depart="38.00" departLane="698899190#27_0" departPos="2.30" departSpeed="0.00" departDelay="0.09" arrival="53.00" arrivalLane="260831609_0" arrivalPos="40.51" arrivalSpeed="18.83" duration="15.00" routeLength="243.93" waitingTime="0.00" waitingCount="0" stopTime="0.00" timeLoss="2.74" rerouteNo="1" devices="tripinfo_motorcycle555 routing_motorcycle555" vType="motorcycle_motorcycle" speedFactor="0.93" vaporized=""/>
    <tripinfo id="veh220" depart="7.00" departLane="-25544414#2_0" departPos="5.10" departSpeed="8.29" departDelay="0.75" arrival="53.00" arrivalLane="-194272401_0" arrivalPos="137.08" arrivalSpeed="11.73" duration="46.00" routeLength="444.15" waitingTime="0.00" waitingCount="0" stopTime="0.00" timeLoss="11.75" rerouteNo="1" devices="tripinfo_veh220 routing_veh220" vType="veh_passenger" speedFactor="1.07" vaporized=""/>
    <tripinfo id="motorcycle224" depart="16.00" departLane="25097116#0_0" departPos="2.30" departSpeed="0.00" departDelay="0.70" arrival="57.00" arrivalLane="305656484#0_1" arrivalPos="2.00" arrivalSpeed="15.21" duration="41.00" routeLength="458.18" waitingTime="0.00" waitingCount="0" stopTime="0.00" timeLoss="7.98" rerouteNo="1" devices="tripinfo_motorcycle224 routing_motorcycle224" vType="motorcycle_motorcycle" speedFactor="1.09" vaporized=""/>
    <tripinfo id="motorcycle93" depart="7.00" departLane="-366207795#1_0" departPos="0.20" departSpeed="0.00" departDelay="0.65" arrival="58.00" arrivalLane="263158839#2_0" arrivalPos="30.15" arrivalSpeed="12.24" duration="51.00" routeLength="518.34" waitingTime="0.00" waitingCount="0" stopTime="0.00" timeLoss="8.01" rerouteNo="1" devices="tripinfo_motorcycle93 routing_motorcycle93" vType="motorcycle_motorcycle" speedFactor="0.91" vaporized=""/>
    <tripinfo id="motorcycle723" depart="50.00" departLane="1369660647#0_0" departPos="0.20" departSpeed="0.00" departDelay="0.61" arrival="58.00" arrivalLane="1369660647#1_0" arrivalPos="42.68" arrivalSpeed="9.49" duration="8.00" routeLength="55.28" waitingTime="0.00" waitingCount="0" stopTime="0.00" timeLoss="1.90" rerouteNo="0" devices="tripinfo_motorcycle723 routing_motorcycle723" vType="motorcycle_motorcycle" speedFactor="0.82" vaporized=""/>
    <tripinfo id="motorcycle405" depart="28.00" departLane="25474499_0" departPos="2.30" departSpeed="0.00" departDelay="0.33" arrival="59.00" arrivalLane="-25474497_0" arrivalPos="157.78" arrivalSpeed="10.93" duration="31.00" routeLength="340.36" waitingTime="0.00" waitingCount="0" stopTime="0.00" timeLoss="5.50" rerouteNo="1" devices="tripinfo_motorcycle405 routing_motorcycle405" vType="motorcycle_motorcycle" speedFactor="0.99" vaporized=""/>
    <tripinfo id="veh906" depart="26.00" departLane="698901015#1_0" departPos="5.10" departSpeed="0.00" departDelay="0.25" arrival="59.00" arrivalLane="698899190#7_0" arrivalPos="108.07" arrivalSpeed="18.57" duration="33.00" routeLength="385.83" waitingTime="0.00" waitingCount="0" stopTime="0.00" timeLoss="8.50" rerouteNo="1" devices="tripinfo_veh906 routing_veh906" vType="veh_passenger" speedFactor="0.93" vaporized=""/>
    <tripinfo id="motorcycle575" depart="40.00" departLane="310096358#9_0" departPos="2.30" departSpeed="0.00" departDelay="0.72" arrival="60.00" arrivalLane="-63523002#0_0" arrivalPos="30.92" arrivalSpeed="10.92" duration="20.00" routeLength="189.61" waitingTime="0.00" waitingCount="0" stopTime="0.00" timeLoss="5.48" rerouteNo="1" devices="tripinfo_motorcycle575 routing_motorcycle575" vType="motorcycle_motorcycle" speedFactor="0.93" vaporized=""/>
    <tripinfo id="veh32" depart="1.00" departLane="-473662144#0_0" departPos="5.10" departSpeed="0.00" departDelay="0.09" arrival="60.00" arrivalLane="369767730#6_0" arrivalPos="74.84" arrivalSpeed="12.42" duration="59.00" routeLength="497.24" waitingTime="0.00" waitingCount="0" stopTime="0.00" timeLoss="16.73" rerouteNo="1" devices="tripinfo_veh32 routing_veh32" vType="veh_passenger" speedFactor="0.93" vaporized=""/>
    <tripinfo id="motorcycle550" depart="38.00" departLane="1196643899#0_0" departPos="2.30" departSpeed="0.00" departDelay="0.43" arrival="61.00" arrivalLane="17151599#0_0" arrivalPos="92.21" arrivalSpeed="11.41" duration="23.00" routeLength="297.58" waitingTime="0.00" waitingCount="0" stopTime="0.00" timeLoss="5.45" rerouteNo="1" devices="tripinfo_motorcycle550 routing_motorcycle550" vType="motorcycle_motorcycle" speedFactor="0.90" vaporized=""/>
    <tripinfo id="veh443" depart="13.00" departLane="381285390#1_0" departPos="5.10" departSpeed="0.00" departDelay="0.41" arrival="61.00" arrivalLane="556809963_0" arrivalPos="19.42" arrivalSpeed="21.05" duration="48.00" routeLength="641.69" waitingTime="0.00" waitingCount="0" stopTime="0.00" timeLoss="16.69" rerouteNo="1" devices="tripinfo_veh443 routing_veh443" vType="veh_passenger" speedFactor="1.01" vaporized=""/>
    <tripinfo id="motorcycle434" depart="30.00" departLane="-444483727_0" departPos="2.30" departSpeed="0.00" departDelay="0.35" arrival="62.00" arrivalLane="24619892#1_0" arrivalPos="58.52" arrivalSpeed="14.14" duration="32.00" routeLength="339.82" waitingTime="0.00" waitingCount="0" stopTime="0.00" timeLoss="9.40" rerouteNo="1" devices="tripinfo_motorcycle434 routing_motorcycle434" vType="motorcycle_motorcycle" speedFactor="1.17" vaporized=""/>
    <tripinfo id="motorcycle586" depart="41.00" departLane="362887053#0_0" departPos="2.30" departSpeed="0.00" departDelay="0.97" arrival="62.00" arrivalLane="362886525#6_0" arrivalPos="52.58" arrivalSpeed="13.20" duration="21.00" routeLength="204.59" waitingTime="0.00" waitingCount="0" stopTime="0.00" timeLoss="4.96" rerouteNo="1" devices="tripinfo_motorcycle586 routing_motorcycle586" vType="motorcycle_motorcycle" speedFactor="1.06" vaporized=""/>
    <tripinfo id="motorcycle117" depart="8.00" departLane="-258585134#5_0" departPos="2.30" departSpeed="0.00" departDelay="0.01" arrival="67.00" arrivalLane="-25097139#4_0" arrivalPos="46.00" arrivalSpeed="13.07" duration="59.00" routeLength="683.00" waitingTime="0.00" waitingCount="0" stopTime="0.00" timeLoss="9.55" rerouteNo="1" devices="tripinfo_motorcycle117 routing_motorcycle117" vType="motorcycle_motorcycle" speedFactor="1.10" vaporized=""/>
    <tripinfo id="motorcycle57" depart="4.00" departLane="-221228812#0_0" departPos="2.30" departSpeed="0.00" departDelay="0.11" arrival="68.00" arrivalLane="-263158399#4_0" arrivalPos="82.97" arrivalSpeed="15.12" duration="64.00" routeLength="516.07" waitingTime="9.00" waitingCount="3" stopTime="0.00" timeLoss="28.36" rerouteNo="1" devices="tripinfo_motorcycle57 routing_motorcycle57" vType="motorcycle_motorcycle" speedFactor="1.12" vaporized=""/>
    <tripinfo id="motorcycle196" depart="14.00" departLane="-172376527_0" departPos="2.30" departSpeed="0.00" departDelay="0.61" arrival="68.00" arrivalLane="-25146694#2_0" arrivalPos="66.78" arrivalSpeed="10.76" duration="54.00" routeLength="520.15" waitingTime="0.00" waitingCount="0" stopTime="0.00" timeLoss="12.01" rerouteNo="1" devices="tripinfo_motorcycle196 routing_motorcycle196" vType="motorcycle_motorcycle" speedFactor="0.95" vaporized=""/>
    <tripinfo id="motorcycle233" depart="16.00" departLane="194381761#1_0" departPos="2.30" departSpeed="0.00" departDelay="0.08" arrival="68.00" arrivalLane="417422704_0" arrivalPos="146.48" arrivalSpeed="7.10" duration="52.00" routeLength="424.67" waitingTime="0.00" waitingCount="0" stopTime="0.00" timeLoss="10.61" rerouteNo="1" devices="tripinfo_motorcycle233 routing_motorcycle233" vType="motorcycle_motorcycle" speedFactor="0.88" vaporized=""/>
    <tripinfo id="motorcycle143" depart="10.00" departLane="25111944#6_0" departPos="2.30" departSpeed="0.00" departDelay="0.23" arrival="69.00" arrivalLane="52168350#0_0" arrivalPos="53.34" arrivalSpeed="12.00" duration="59.00" routeLength="647.79" waitingTime="1.00" waitingCount="1" stopTime="0.00" timeLoss="14.43" rerouteNo="1" devices="tripinfo_motorcycle143 routing_motorcycle143" vType="motorcycle_motorcycle" speedFactor="1.00" vaporized=""/>
    <tripinfo id="motorcycle185" depart="13.00" departLane="659828976#2_0" departPos="2.30" departSpeed="0.00" departDelay="0.36" arrival="70.00" arrivalLane="-1334174317_0" arrivalPos="7.30" arrivalSpeed="2.52" duration="57.00" routeLength="522.31" waitingTime="6.00" waitingCount="1" stopTime="0.00" timeLoss="21.81" rerouteNo="1" devices="tripinfo_motorcycle185 routing_motorcycle185" vType="motorcycle_motorcycle" speedFactor="0.97" vaporized=""/>
    <tripinfo id="motorcycle533" depart="37.00" departLane="305656484#1_0" departPos="2.30" departSpeed="0.00" departDelay="0.59" arrival="70.00" arrivalLane="221256064#0_0" arrivalPos="208.02" arrivalSpeed="13.96" duration="33.00" routeLength="399.90" waitingTime="0.00" waitingCount="0" stopTime="0.00" timeLoss="10.57" rerouteNo="1" devices="tripinfo_motorcycle533 routing_motorcycle533" vType="motorcycle_motorcycle" speedFactor="0.85" vaporized=""/>
    <tripinfo id="motorcycle77" depart="6.00" departLane="17150727#0_0" departPos="2.30" departSpeed="0.00" departDelay="0.74" arrival="71.00" arrivalLane="323492688#2_0" arrivalPos="62.40" arrivalSpeed="11.60" duration="65.00" routeLength="547.59" waitingTime="5.00" waitingCount="1" stopTime="0.00" timeLoss="20.01" rerouteNo="1" devices="tripinfo_motorcycle77 routing_motorcycle77" vType="motorcycle_motorcycle" speedFactor="1.00" vaporized=""/>
    <tripinfo id="motorcycle265" depart="19.00" departLane="366207733#0_1" departPos="2.30" departSpeed="0.00" departDelay="0.90" arrival="71.00" arrivalLane="718050627#0_0" arrivalPos="52.51" arrivalSpeed="19.82" duration="52.00" routeLength="603.96" waitingTime="1.00" waitingCount="1" stopTime="0.00" timeLoss="18.71" rerouteNo="1" devices="tripinfo_motorcycle265 routing_motorcycle265" vType="motorcycle_motorcycle" speedFactor="1.26" vaporized=""/>
    <tripinfo id="motorcycle252" depart="18.00" departLane="-172543773#4_0" departPos="2.30" departSpeed="13.39" departDelay="0.79" arrival="72.00" arrivalLane="-453890009#3_1" arrivalPos="126.44" arrivalSpeed="14.01" duration="54.00" routeLength="457.20" waitingTime="1.00" waitingCount="1" stopTime="0.00" timeLoss="17.77" rerouteNo="1" devices="tripinfo_motorcycle252 routing_motorcycle252" vType="motorcycle_motorcycle" speedFactor="0.96" vaporized=""/>
    <tripinfo id="motorcycle629" depart="43.00" departLane="-16813289#2_0" departPos="2.30" departSpeed="0.00" departDelay="0.03" arrival="72.00" arrivalLane="16813119#0_0" arrivalPos="73.60" arrivalSpeed="13.26" duration="29.00" routeLength="320.84" waitingTime="0.00" waitingCount="0" stopTime="0.00" timeLoss="4.82" rerouteNo="1" devices="tripinfo_motorcycle629 routing_motorcycle629" vType="motorcycle_motorcycle" speedFactor="1.01" vaporized=""/>
    <tripinfo id="motorcycle7" depart="1.00" departLane="-25508791#0_0" departPos="2.30" departSpeed="0.00" departDelay="0.52" arrival="74.00" arrivalLane="55559787#2_1" arrivalPos="24.39" arrivalSpeed="10.53" duration="73.00" routeLength="564.75" waitingTime="15.00" waitingCount="1" stopTime="0.00" timeLoss="30.23" rerouteNo="1" devices="tripinfo_motorcycle7 routing_motorcycle7" vType="motorcycle_motorcycle" speedFactor="1.03" vaporized=""/>
    <tripinfo id="motorcycle51" depart="4.00" departLane="-222371681#2_0" departPos="2.30" departSpeed="0.00" departDelay="0.52" arrival="74.00" arrivalLane="-25474563_0" arrivalPos="51.69" arrivalSpeed="11.33" duration="70.00" routeLength="642.01" waitingTime="4.00" waitingCount="1" stopTime="0.00" timeLoss="20.43" rerouteNo="1" devices="tripinfo_motorcycle51 routing_motorcycle51" vType="motorcycle_motorcycle" speedFactor="1.00" vaporized=""/>
    <tripinfo id="motorcycle126" depart="9.00" departLane="-31430398#1_0" departPos="2.30" departSpeed="0.00" departDelay="0.39" arrival="74.00" arrivalLane="-31159934#2_0" arrivalPos="100.43" arrivalSpeed="13.81" duration="65.00" routeLength="808.44" waitingTime="0.00" waitingCount="0" stopTime="0.00" timeLoss="19.96" rerouteNo="1" devices="tripinfo_motorcycle126 routing_motorcycle126" vType="motorcycle_motorcycle" speedFactor="1.03" vaporized=""/>
    <tripinfo id="motorcycle610" depart="42.00" departLane="362875593#3_0" departPos="2.30" departSpeed="0.00" departDelay="0.33" arrival="74.00" arrivalLane="-25266061#9_0" arrivalPos="29.10" arrivalSpeed="13.20" duration="32.00" routeLength="333.74" waitingTime="0.00" waitingCount="0" stopTime="0.00" timeLoss="8.07" rerouteNo="1" devices="tripinfo_motorcycle610 routing_motorcycle610" vType="motorcycle_motorcycle" speedFactor="1.14" vaporized=""/>
    <tripinfo id="motorcycle732" depart="56.00" departLane="49290003#9_0" departPos="2.30" departSpeed="0.00" departDelay="6.00" arrival="74.00" arrivalLane="418199409#0_0" arrivalPos="50.04" arrivalSpeed="12.40" duration="18.00" routeLength="134.77" waitingTime="0.00" waitingCount="0" stopTime="0.00" timeLoss="4.77" rerouteNo="0" devices="tripinfo_motorcycle732 routing_motorcycle732" vType="motorcycle_motorcycle" speedFactor="0.94" vaporized=""/>
    <tripinfo id="motorcycle912" depart="63.00" departLane="25114547_1" departPos="2.30" departSpeed="0.00" departDelay="0.70" arrival="74.00" arrivalLane="25113487#0_2" arrivalPos="75.62" arrivalSpeed="24.86" duration="11.00" routeLength="155.29" waitingTime="0.00" waitingCount="0" stopTime="0.00" timeLoss="3.51" rerouteNo="1" devices="tripinfo_motorcycle912 routing_motorcycle912" vType="motorcycle_motorcycle" speedFactor="0.91" vaporized=""/>
    <tripinfo id="motorcycle58" depart="4.00" departLane="-377909528#0_0" departPos="2.30" departSpeed="0.00" departDelay="0.04" arrival="75.00" arrivalLane="-80309577_0" arrivalPos="53.47" arrivalSpeed="10.70" duration="71.00" routeLength="674.03" waitingTime="3.00" waitingCount="1" stopTime="0.00" timeLoss="18.89" rerouteNo="1" devices="tripinfo_motorcycle58 routing_motorcycle58" vType="motorcycle_motorcycle" speedFactor="1.02" vaporized=""/>
    <tripinfo id="motorcycle167" depart="12.00" departLane="16158858#2_0" departPos="2.30" departSpeed="0.00" departDelay="0.59" arrival="75.00" arrivalLane="549832820#5_0" arrivalPos="52.61" arrivalSpeed="9.44" duration="63.00" routeLength="521.77" waitingTime="3.00" waitingCount="1" stopTime="0.00" timeLoss="13.83" rerouteNo="1" devices="tripinfo_motorcycle167 routing_motorcycle167" vType="motorcycle_motorcycle" speedFactor="0.90" vaporized=""/>
    <tripinfo id="motorcycle478" depart="33.00" departLane="-713684973#1_0" departPos="2.30" departSpeed="0.00" departDelay="0.35" arrival="75.00" arrivalLane="1010365588_0" arrivalPos="134.43" arrivalSpeed="14.99" duration="42.00" routeLength="463.48" waitingTime="0.00" waitingCount="0" stopTime="0.00" timeLoss="9.78" rerouteNo="1" devices="tripinfo_motorcycle478 routing_motorcycle478" vType="motorcycle_motorcycle" speedFactor="1.08" vaporized=""/>
    <tripinfo id="motorcycle661" depart="46.00" departLane="-360610413#2_0" departPos="2.30" departSpeed="0.00" departDelay="0.85" arrival="75.00" arrivalLane="394698237_0" arrivalPos="87.68" arrivalSpeed="13.09" duration="29.00" routeLength="278.90" waitingTime="0.00" waitingCount="0" stopTime="0.00" timeLoss="6.91" rerouteNo="1" devices="tripinfo_motorcycle661 routing_motorcycle661" vType="motorcycle_motorcycle" speedFactor="1.00" vaporized=""/>
    <tripinfo id="motorcycle15" depart="2.00" departLane="152816693_0" departPos="2.30" departSpeed="0.00" departDelay="0.98" arrival="76.00" arrivalLane="-25097135#1_0" arrivalPos="58.16" arrivalSpeed="13.76" duration="74.00" routeLength="1115.20" waitingTime="0.00" waitingCount="0" stopTime="0.00" timeLoss="13.54" rerouteNo="1" devices="tripinfo_motorcycle15 routing_motorcycle15" vType="motorcycle_motorcycle" speedFactor="1.16" vaporized=""/>
    <tripinfo id="motorcycle205" depart="14.00" departLane="-259626047_0" departPos="2.30" departSpeed="0.00" departDelay="0.00" arrival="77.00" arrivalLane="25440463#6_0" arrivalPos="129.66" arrivalSpeed="9.66" duration="63.00" routeLength="615.62" waitingTime="0.00" waitingCount="0" stopTime="0.00" timeLoss="12.44" rerouteNo="1" devices="tripinfo_motorcycle205 routing_motorcycle205" vType="motorcycle_motorcycle" speedFactor="0.98" vaporized=""/>
    <tripinfo id="motorcycle294" depart="21.00" departLane="-323498416_0" departPos="2.30" departSpeed="13.65" departDelay="0.92" arrival="77.00" arrivalLane="25112805#1_0" arrivalPos="23.40" arrivalSpeed="20.60" duration="56.00" routeLength="895.32" waitingTime="0.00" waitingCount="0" stopTime="0.00" timeLoss="8.54" rerouteNo="1" devices="tripinfo_motorcycle294 routing_motorcycle294" vType="motorcycle_motorcycle" speedFactor="0.98" vaporized=""/>
    <tripinfo id="veh1418" depart="41.00" departLane="-25474387#2_0" departPos="5.10" departSpeed="15.04" departDelay="0.69" arrival="77.00" arrivalLane="-667603234#1_0" arrivalPos="30.55" arrivalSpeed="14.10" duration="36.00" routeLength="445.65" waitingTime="0.00" waitingCount="0" stopTime="0.00" timeLoss="4.50" rerouteNo="1" devices="tripinfo_veh1418 routing_veh1418" vType="veh_passenger" speedFactor="1.08" vaporized=""/>
    <tripinfo id="motorcycle144" depart="10.00" departLane="25348707#1_0" departPos="2.30" departSpeed="0.00" departDelay="0.16" arrival="78.00" arrivalLane="49369840#0_0" arrivalPos="79.98" arrivalSpeed="12.78" duration="68.00" routeLength="926.40" waitingTime="0.00" waitingCount="0" stopTime="0.00" timeLoss="11.28" rerouteNo="1" devices="tripinfo_motorcycle144 routing_motorcycle144" vType="motorcycle_motorcycle" speedFactor="0.97" vaporized=""/>
    <tripinfo id="motorcycle372" depart="26.00" departLane="-263307116#1_0" departPos="2.30" departSpeed="0.00" departDelay="0.59" arrival="78.00" arrivalLane="-16158892#2_0" arrivalPos="89.41" arrivalSpeed="13.88" duration="52.00" routeLength="591.32" waitingTime="0.00" waitingCount="0" stopTime="0.00" timeLoss="16.31" rerouteNo="1" devices="tripinfo_motorcycle372 routing_motorcycle372" vType="motorcycle_motorcycle" speedFactor="1.10" vaporized=""/>
    <tripinfo id="motorcycle545" depart="38.00" departLane="-25401154#0_0" departPos="2.30" departSpeed="0.00" departDelay="0.77" arrival="78.00" arrivalLane="-258343327#0_0" arrivalPos="35.31" arrivalSpeed="11.67" duration="40.00" routeLength="354.07" waitingTime="0.00" waitingCount="0" stopTime="0.00" timeLoss="10.43" rerouteNo="1" devices="tripinfo_motorcycle545 routing_motorcycle545" vType="motorcycle_motorcycle" speedFactor="0.96" vaporized=""/>
    <tripinfo id="motorcycle139" depart="10.00" departLane="222665295#1_0" departPos="2.30" departSpeed="0.00" departDelay="0.50" arrival="80.00" arrivalLane="1447638283#0_0" arrivalPos="202.60" arrivalSpeed="13.46" duration="70.00" routeLength="916.62" waitingTime="0.00" waitingCount="0" stopTime="0.00" timeLoss="15.56" rerouteNo="1" devices="tripinfo_motorcycle139 routing_motorcycle139" vType="motorcycle_motorcycle" speedFactor="1.13" vaporized=""/>
    <tripinfo id="motorcycle123" depart="11.00" departLane="25342862#0_0" departPos="2.30" departSpeed="0.00" departDelay="2.60" arrival="81.00" arrivalLane="25907290#0_0" arrivalPos="38.12" arrivalSpeed="9.52" duration="70.00" routeLength="534.35" waitingTime="1.00" waitingCount="1" stopTime="0.00" timeLoss="16.54" rerouteNo="1" devices="tripinfo_motorcycle123 routing_motorcycle123" vType="motorcycle_motorcycle" speedFactor="0.82" vaporized=""/>
    <tripinfo id="motorcycle186" depart="13.00" departLane="-16188770#3_0" departPos="2.30" departSpeed="0.00" departDelay="0.29" arrival="81.00" arrivalLane="25266068#1_0" arrivalPos="95.02" arrivalSpeed="12.26" duration="68.00" routeLength="508.90" waitingTime="7.00" waitingCount="1" stopTime="0.00" timeLoss="23.75" rerouteNo="1" devices="tripinfo_motorcycle186 routing_motorcycle186" vType="motorcycle_motorcycle" speedFactor="0.90" vaporized=""/>
    <tripinfo id="motorcycle507" depart="35.00" departLane="70186091_0" departPos="2.30" departSpeed="0.00" departDelay="0.37" arrival="82.00" arrivalLane="-353330151#0_0" arrivalPos="33.94" arrivalSpeed="13.58" duration="47.00" routeLength="390.42" waitingTime="5.00" waitingCount="1" stopTime="0.00" timeLoss="16.25" rerouteNo="1" devices="tripinfo_motorcycle507 routing_motorcycle507" vType="motorcycle_motorcycle" speedFactor="1.01" vaporized=""/>
    <tripinfo id="motorcycle264" depart="19.00" departLane="259688041#0_0" departPos="2.30" departSpeed="0.00" departDelay="0.97" arrival="83.00" arrivalLane="-25519403_0" arrivalPos="215.52" arrivalSpeed="13.13" duration="64.00" routeLength="713.69" waitingTime="0.00" waitingCount="0" stopTime="0.00" timeLoss="11.62" rerouteNo="1" devices="tripinfo_motorcycle264 routing_motorcycle264" vType="motorcycle_motorcycle" speedFactor="0.96" vaporized=""/>
    <tripinfo id="motorcycle843" depart="58.00" departLane="16158612#5_0" departPos="2.30" departSpeed="0.00" departDelay="0.41" arrival="83.00" arrivalLane="-1158026720_0" arrivalPos="27.69" arrivalSpeed="10.55" duration="25.00" routeLength="219.22" waitingTime="0.00" waitingCount="0" stopTime="0.00" timeLoss="5.73" rerouteNo="1" devices="tripinfo_motorcycle843 routing_motorcycle843" vType="motorcycle_motorcycle" speedFactor="0.90" vaporized=""/>
    <tripinfo id="motorcycle291" depart="20.00" departLane="1156686443_0" departPos="2.30" departSpeed="0.00" departDelay="0.12" arrival="84.00" arrivalLane="258583063#4_0" arrivalPos="90.72" arrivalSpeed="5.72" duration="64.00" routeLength="726.54" waitingTime="0.00" waitingCount="0" stopTime="0.00" timeLoss="16.16" rerouteNo="1" devices="tripinfo_motorcycle291 routing_motorcycle291" vType="motorcycle_motorcycle" speedFactor="0.96" vaporized=""/>