<?xml version="1.0" encoding="UTF-8"?>

<!-- generated on 2026-02-15T18:22:21.266698-06:00 by Eclipse SUMO sumo 1.26.0
<sumoConfiguration xmlns:xsi="http://www.w3.org/2001/XMLSchema-instance" xsi:noNamespaceSchemaLocation="http://sumo.dlr.de/xsd/sumoConfiguration.xsd">

    <input>
        <net-file value="C:\Users\sebas\2026-02-15-18-21-36\osm.net.xml.gz"/>
        <route-files value="C:\Users\sebas\2026-02-15-18-21-36\trips.trips.xml"/>
        <additional-files value="C:\Users\sebas\2026-02-15-18-21-36\osm_stops.add.xml"/>
    </input>

    <output>
        <vehroute-output value="C:\Users\sebas\2026-02-15-18-21-36\vehroutes.xml"/>
        <stop-output value="C:\Users\sebas\2026-02-15-18-21-36\stopinfos.xml"/>
    </output>

    <time>
        <begin value="0.0"/>
    </time>

    <processing>
        <ignore-route-errors value="true"/>
        <time-to-teleport.disconnected value="0"/>
    </processing>

    <routing>
        <device.rerouting.adaptation-interval value="0"/>
    </routing>

    <report>
        <aggregate-warnings value="5"/>
        <error-log value="C:\Users\sebas\2026-02-15-18-21-36\trips.trips.xml.errorlog"/>
        <no-step-log value="true"/>
    </report>

</sumoConfiguration>
-->

<routes xmlns:xsi="http://www.w3.org/2001/XMLSchema-instance" xsi:noNamespaceSchemaLocation="http://sumo.dlr.de/xsd/routes_file.xsd">
    <vehicle id="4_bus_L4:0" type="pt_bus" depart="52.00" departLane="0" arrival="107.00">
        <route edges="222665295#1"/>
        <stop busStop="4092185441" duration="30.00"/>
    </vehicle>

    <vehicle id="0_bus_R09:0" type="pt_bus" depart="3.00" departLane="0" arrival="111.00">
        <route edges="313416568 313416568-AddedOffRampEdge 653718470 301771702 25094079 1344679503#0 1344679503#1"/>
        <stop busStop="6812665584" duration="30.00"/>
    </vehicle>

    <vehicle id="3_bus_Ruta_08_San_José_-_Ruta_Periférica:0" type="pt_bus" depart="17.00" departLane="0" arrival="155.00">
        <route edges="179736579#0 296151731#0 1221406798#1 1221406798#3 1221406798#4 222542360#0 222542360#1 453890009#2 198218478"/>
        <stop busStop="3950755435" duration="30.00"/>
        <stop busStop="3950802957" duration="30.00"/>
    </vehicle>

    <vehicle id="8_train_4:0" type="pt_train" depart="119.00" departLane="0" arrival="375.00">
        <route edges="452573164#0 452573164#1 452573164#2 452573164#3 452573164#4 452573164#6 452573164#8 452573164#9 25342835#1 25342835#2 1207582823 26428318#0 26428318#1 1038934246#0 1038934246#1 1038934246#2 1038934246#3 1038934246#3"/>
        <stop busStop="4628999924@6559533" duration="30.00"/>
        <stop busStop="4628999925" duration="30.00"/>
    </vehicle>

    <vehicle id="1_bus_R09:1" type="pt_bus" depart="15.00" departLane="0" arrival="407.00">
        <route edges="549800867 1344685758 30721346#0 16158888 1344685747 1344685746#0 789694947#0 -25758143 -423270142#2 -423270142#0 -423270143#1 -1196643899#2 -1196643900 -717755313 -1196643901 717755314 -298981555#2 298981555#2 31430391#0 31430391#1 1344685755#0 1344685755#1 1344685755#2 655657657 220669507#0 301771705 313416572"/>
        <stop busStop="10857092910" duration="30.00"/>
        <stop busStop="6812679486" duration="30.00"/>
        <stop busStop="12452606525" duration="30.00"/>
    </vehicle>

    <vehicle id="9_train_4:1" type="pt_train" depart="302.00" departLane="0" arrival="417.00">
        <route edges="1038934246#3 1038934246#3"/>
        <stop busStop="4628999924@6559533" duration="30.00"/>
        <stop busStop="4628999925" duration="30.00"/>
    </vehicle>

    <vehicle id="6_bus_203:0" type="pt_bus" depart="58.00" departLane="0" arrival="478.00">
        <route edges="389754237 389754235 220776221 913208199#0 675061412 655655658#0-AddedOnRampEdge 655655658#0 17154953#0 17154953#1 17154953#2 1338790836#0 298981555#0 298981555#1 298981555#2 -717755314 1196643901 717755313 1196643900 1196643899#0 423270143#0 423270142#0 423270142#1 25758143 298978968#1 549800866#0 549800866#1 82877651 -549800868"/>
        <stop busStop="5310867777" duration="30.00"/>
        <stop busStop="3655894875" duration="30.00"/>
        <stop busStop="5310867776" duration="30.00"/>
        <stop busStop="-4100624695" duration="30.00"/>
        <stop busStop="-5310867778" duration="30.00"/>
    </vehicle>

    <vehicle id="7_train_2:0" type="pt_train" depart="93.00" departLane="0" arrival="526.00">
        <route edges="468564875#0 468564875#1 468564875#2 468564875#3 31422046#1 31422046#2 31422046#3 25544852#1 716772051#1 716772051#2 -227891840#2 -227891840#1 -227891840#0 -25549799#2 -25549799#1 -25549799#0"/>
        <stop busStop="4628999924" duration="30.00"/>
        <stop busStop="5824465670" duration="30.00"/>
        <stop busStop="-4629001928" duration="30.00"/>
    </vehicle>

    <vehicle id="2_bus_Ruta_9_Santa_Ana_-_San_José:0" type="pt_bus" depart="15.00" departLane="0" arrival="532.00">
        <route edges="313416568 313416568-AddedOffRampEdge 653718470 301771702 25094079 1344679503#0 1344679503#1 13774544#1 31430401#1 1344685755#1 1344685755#2 655657657 220669507#0 1038938828 1344679503#0 1344679503#1 13774626#8 388559875#1 59677270 1038938825#0 1038938825#4 1038938825#5 17150865#0 13774544#6 1038938826#0 17150959#2 17150959#3 17150959#4 1196643899#0 423270143#0"/>
        <stop busStop="6812665584" duration="30.00"/>
        <stop busStop="12453512212" duration="30.00"/>
        <stop busStop="12453512211" duration="30.00"/>
        <stop busStop="12453512209" duration="30.00"/>
    </vehicle>

    <vehicle id="24_train_4:3" type="pt_train" depart="483.00" departLane="0" arrival="556.00">
        <route edges="1038934246#3 1038934246#3"/>
        <stop busStop="4628999924@6559533" duration="30.00"/>
        <stop busStop="4628999925" duration="30.00"/>
    </vehicle>

    <vehicle id="10_train_1:0" type="pt_train" depart="132.00" departLane="0" arrival="766.00">
        <route edges="25841648#0 25841648#1 25841648#2 25841648#3 446753979#0 446753979#1 446753979#2 446753979#3 446753979#4 446753979#5 446753979#6 446753979#8 446753979#9 446753979#10 446753979#11 446753979#12 446753979#13 446753979#14 446753979#15"/>
        <stop busStop="289555266" duration="30.00"/>
        <stop busStop="278449879" duration="30.00"/>
        <stop busStop="4636012381" duration="30.00"/>
        <stop busStop="4636012380" duration="30.00"/>
    </vehicle>

    <vehicle id="27_bus_06:0" type="pt_bus" depart="574.00" departLane="0" arrival="775.00">
        <route edges="366059389#3 366059389#8 355834340 657749010 655417352#0 655417352#1 657749174#0 657749174#1 657749174#4 657749174#8 135050788#0 135050788#1"/>
        <stop busStop="5501954525" duration="30.00"/>
        <stop busStop="5501955422" duration="30.00"/>
    </vehicle>

    <vehicle id="25_bus_200:0" type="pt_bus" depart="485.00" departLane="1" arrival="796.00">
        <route edges="389754237 389754235 220776221 913208199#0 675061412 655655658#0-AddedOnRampEdge 655655658#0 17154953#0 17154953#1 17154953#2 1338790836#0 298981555#0 298981555#1 298981555#2 -717755314 1196643901 717755313 1196643900 1196643899#0 423270143#0 423270142#0 423270142#1 25758143 298978968#1 549800869 16158954 25548649#0 549832822"/>
        <stop busStop="5311344479" duration="30.00"/>
    </vehicle>

    <vehicle id="5_bus_142:0" type="pt_bus" depart="55.00" departLane="0" arrival="848.00">
        <route edges="1196913410 597539557#0 572220179 718058090 24855888#0 24855888#2 24855888#6 24855888#7 378465769 769463984 1377927175#1 1377927175#2 1377927172 769463983 1362747245 1200831591#1 1200831591#2 1362747242#0 1362747242#1 -1451247474 25064160#0 -25064160#3 25064160#0 25064160#4 59677117 64882214 1200847304 64882219#0 -457083634 -222641616 -222641615#2 -298981125#1 -298981125#0 -1197108947#1 -1197108947#0 -1200845480 298981124 388500922#0 380133292 1227248480 657749008 1227248475 310175370#0 718050628 366059396 260838959#0 25112798#0 25112798#1 698899190#13 698899190#16 698899190#17 698899190#18 698899190#19 698899190#20 698899190#23 698899190#27 698899190#28 260831609 260831616#0 298981125#0 298981125#1"/>
        <stop busStop="1833745692" duration="30.00"/>
        <stop busStop="4098834270" duration="30.00"/>
        <stop busStop="-4098870372" duration="30.00"/>
        <stop busStop="2698004040" duration="30.00"/>
        <stop busStop="4098870366" duration="30.00"/>
        <stop busStop="4098870368" duration="30.00"/>
        <stop busStop="4098870369" duration="30.00"/>
    </vehicle>

    <vehicle id="26_bus_203:1" type="pt_bus" depart="535.00" departLane="0" arrival="873.00">
        <route edges="549800868 549800867 1344685758 30721346#0 16158888 1344685747 1344685746#0 789694947#0 -25758143 -423270142#2 -423270142#0 -423270143#1 -1196643899#2 -1196643900 -717755313 -1196643901 717755314 -298981555#2 -298981555#1 -298981555#0 1338790835 298982137#0 1198720479 298492231#0 298492231#1 298492231#2 31743949#2 31743949#3 -258242592#1 -319182466#1 1248302328"/>
        <stop busStop="4100624695" duration="30.00"/>
        <stop busStop="5310867778" duration="30.00"/>
        <stop busStop="5310867775" duration="30.00"/>
    </vehicle>

    <vehicle id="12_train_2:1" type="pt_train" depart="526.00" departLane="0" arrival="1109.00">
        <route edges="25549799#0 25549799#1 25549799#2 25549799#3 227891840#1 227891840#2 227891840#3 -716772051#1 -716772051#0 -25544852#0 -31422046#2 -31422046#1 -31422046#0 -468564875#2 -468564875#1 -468564875#0 -1038934246#3 -1038934246#2 -1038934246#1 -1038934246#0 -26428318#1 -26428318#0 -1207582823 -491698189 -25342835#1 -25342835#0 -452573164#8 -452573164#7 -452573164#5 -452573164#3 -452573164#2 -452573164#1 -452573164#0"/>
        <stop busStop="4629001928" duration="30.00"/>
        <stop busStop="-5824465670" duration="30.00"/>
        <stop busStop="-4628999924" duration="30.00"/>
    </vehicle>

    <vehicle id="15_train_2:3" type="pt_train" depart="999.00" departLane="0" arrival="1440.00">
        <route edges="25549799#0 25549799#1 25549799#2 25549799#3 227891840#1 227891840#2 227891840#3 -716772051#1 -716772051#0 -25544852#0 -31422046#2 -31422046#1 -31422046#0 -468564875#2 -468564875#1 -468564875#0"/>
        <stop busStop="4629001928" duration="30.00"/>
        <stop busStop="-5824465670" duration="30.00"/>
        <stop busStop="-4628999924" duration="30.00"/>
    </vehicle>

    <vehicle id="11_train_1:1" type="pt_train" depart="766.00" departLane="0" arrival="1453.00">
        <route edges="-446753979#15 -446753979#14 -446753979#13 -446753979#12 -446753979#11 -446753979#10 -446753979#9 -446753979#8 -446753979#7 -446753979#5 -446753979#4 -446753979#3 -446753979#2 -446753979#1 -446753979#0 -25841648#3 -25841648#2 -25841648#1 -25841648#0"/>
        <stop busStop="-4636012380" duration="30.00"/>
        <stop busStop="-4636012381" duration="30.00"/>
        <stop busStop="-278449879" duration="30.00"/>
        <stop busStop="-289555266" duration="30.00"/>
    </vehicle>

    <vehicle id="22_train_4:2" type="pt_train" depart="1838.00" departLane="0" arrival="2024.00">
        <route edges="452573164#0 452573164#1 452573164#2 452573164#3 452573164#4 452573164#6 452573164#8 452573164#9 25342835#1 25342835#2 1207582823 26428318#0 26428318#1 1038934246#0 1038934246#1 1038934246#2 1038934246#3 1038934246#3"/>
        <stop busStop="4628999924@6559533" duration="30.00"/>
    </vehicle>

    <vehicle id="13_train_2:2" type="pt_train" depart="1440.00" departLane="0" arrival="2029.00">
        <route edges="452573164#0 452573164#1 452573164#2 452573164#3 452573164#4 452573164#6 452573164#8 452573164#9 25342835#1 25342835#2 1207582823 26428318#0 26428318#1 1038934246#0 1038934246#1 1038934246#2 1038934246#3 468564875#0 468564875#1 468564875#2 468564875#3 31422046#1 31422046#2 31422046#3 25544852#1 716772051#1 716772051#2 -227891840#2 -227891840#1 -227891840#0 -25549799#2 -25549799#1 -25549799#0"/>
        <stop busStop="4628999924@6559533" duration="30.00"/>
        <stop busStop="5824465670" duration="30.00"/>
        <stop busStop="-4629001928" duration="30.00"/>
    </vehicle>

    <vehicle id="23_train_1:7" type="pt_train" depart="2021.00" departLane="0" arrival="2246.00">
        <route edges="452573164#0 452573164#1 452573164#2 452573164#3 452573164#4 452573164#6 452573164#8 452573164#9 25342835#1 25342835#2 1207582823 26428318#0 26428318#1 1038934246#0 1038934246#1 1038934246#2 1038934246#3 1038934246#3"/>
        <stop busStop="4628999924@6559533" duration="30.00"/>
        <stop busStop="4628999925" duration="30.00"/>
    </vehicle>

    <vehicle id="14_train_1:2" type="pt_train" depart="1453.00" departLane="0" arrival="2346.00">
        <route edges="25841648#0 25841648#1 25841648#2 25841648#3 446753979#0 446753979#1 446753979#2 446753979#3 446753979#4 446753979#5 446753979#6 446753979#8 446753979#9 446753979#10 446753979#11 446753979#12 446753979#13 446753979#14 446753979#15 440793505#0 440793505#1 440793505#2 440793505#3 440793505#4 440793505#5 440793505#7 440793505#8 440793505#9 440793505#10 440793505#10 298488302#0 298488302#1 298488302#2 298488302#3 298488302#4 298488302#5 298488302#6 298488302#7 298488302#8 298488302#9 -440619830#8 -440619830#7 -440619830#6 -440619830#5 -440619830#4 -440619830#3 -440619830#2 -440619830#1 -440619830#0 26428318#0 26428318#1 1038934246#0 1038934246#1 1038934246#2 1038934246#3 1038934246#3"/>
        <stop busStop="289555266" duration="30.00"/>
        <stop busStop="278449879" duration="30.00"/>
        <stop busStop="4636012381" duration="30.00"/>
        <stop busStop="4636012380" duration="30.00"/>
        <stop busStop="4636012379" duration="30.00"/>
        <stop busStop="4628999924@6559533" duration="30.00"/>
        <stop busStop="4628999925" duration="30.00"/>
    </vehicle>

    <vehicle id="16_train_2:4" type="pt_train" depart="2029.00" departLane="0" arrival="2462.00">
        <route edges="468564875#0 468564875#1 468564875#2 468564875#3 31422046#1 31422046#2 31422046#3 25544852#1 716772051#1 716772051#2 -227891840#2 -227891840#1 -227891840#0 -25549799#2 -25549799#1 -25549799#0"/>
        <stop busStop="4628999924" duration="30.00"/>
        <stop busStop="5824465670" duration="30.00"/>
        <stop busStop="-4629001928" duration="30.00"/>
    </vehicle>

    <vehicle id="19_train_1:4" type="pt_train" depart="2068.00" departLane="0" arrival="2615.00">
        <route edges="25841648#0 25841648#1 25841648#2 25841648#3 446753979#0 446753979#1 446753979#2 446753979#3 446753979#4 446753979#5 446753979#6 446753979#8 446753979#9 446753979#10 446753979#11 446753979#12 446753979#13 446753979#14 446753979#15"/>
        <stop busStop="289555266" duration="30.00"/>
        <stop busStop="278449879" duration="30.00"/>
        <stop busStop="4636012381" duration="30.00"/>
        <stop busStop="4636012380" duration="30.00"/>
    </vehicle>

    <vehicle id="17_train_2:5" type="pt_train" depart="2462.00" departLane="0" arrival="2903.00">
        <route edges="25549799#0 25549799#1 25549799#2 25549799#3 227891840#1 227891840#2 227891840#3 -716772051#1 -716772051#0 -25544852#0 -31422046#2 -31422046#1 -31422046#0 -468564875#2 -468564875#1 -468564875#0"/>
        <stop busStop="4629001928" duration="30.00"/>
        <stop busStop="-5824465670" duration="30.00"/>
        <stop busStop="-4628999924" duration="30.00"/>
    </vehicle>

    <vehicle id="21_train_1:6" type="pt_train" depart="417.00" departLane="0" arrival="3261.00">
        <route edges="1038934246#3 1038934246#3 468564875#0 468564875#1 468564875#2 468564875#3 31422046#1 31422046#2 31422046#3 25544852#1 716772051#1 716772051#2 -227891840#2 -227891840#1 -227891840#0 -25549799#2 -25549799#1 -25549799#0 25549799#0 25549799#1 25549799#2 25549799#3 227891840#1 227891840#2 227891840#3 -716772051#1 -716772051#0 -25544852#0 -31422046#2 -31422046#1 -31422046#0 -468564875#2 -468564875#1 -468564875#0 -1038934246#3 -1038934246#2 -1038934246#1 -1038934246#0 -26428318#1 -26428318#0 440619830#0 440619830#1 440619830#2 440619830#3 440619830#4 440619830#5 440619830#6 440619830#7 440619830#8 1038934239#0 -298488302#8 -298488302#7 -298488302#6 -298488302#5 -298488302#4 -298488302#3 -298488302#2 -298488302#1 -298488302#0 -440793505#10 -440793505#9 -440793505#8 -440793505#7 -440793505#6 -440793505#4 -440793505#3 -440793505#2 1122686612#0 1122686612#1 1122686612#2 1122686611#1 440793505#1 440793505#2 440793505#3 440793505#4 440793505#5 440793505#7 440793505#8 440793505#9 440793505#10 298488302#0 298488302#1 298488302#2 298488302#3 298488302#4 298488302#5 298488302#6 298488302#7 298488302#8 298488302#9 -440619830#8 -440619830#7 -440619830#6 -440619830#5 -440619830#4 -440619830#3 -440619830#2 -440619830#1 -440619830#0 26428318#0 26428318#1 1038934246#0 1038934246#1 1038934246#2 1038934246#3 468564875#0 468564875#1 468564875#2 468564875#3 31422046#1 31422046#2 31422046#3 25544852#1 716772051#1 716772051#2 -227891840#2 -227891840#1 -227891840#0 -25549799#2 -25549799#1 -25549799#0 25549799#0 25549799#1 25549799#2 25549799#3 227891840#1 227891840#2 227891840#3 -716772051#1 -716772051#0 -25544852#0 -31422046#2 -31422046#1 -31422046#0 -468564875#2 -468564875#1 -468564875#0 -1038934246#3 -1038934246#2 -1038934246#1 -1038934246#0 -26428318#1 -26428318#0 440619830#0 440619830#1 440619830#2 440619830#3 440619830#4 440619830#5 440619830#6 440619830#7 440619830#8 1038934239#0 -298488302#8 -298488302#7 -298488302#6 -298488302#5 -298488302#4 -298488302#3 -298488302#2 -298488302#1 -298488302#0 -440793505#10 -440793505#9 -440793505#8 -440793505#7 -440793505#6 -440793505#4 -440793505#3 -440793505#2 -440793505#1 -440793505#0 -446753979#15 -446753979#14 -446753979#13 -446753979#12 -446753979#11 -446753979#10 -446753979#9 -446753979#8 -446753979#7 -446753979#5 -446753979#4 -446753979#3 -446753979#2 -446753979#1 -446753979#0 -25841648#3 -25841648#2 -25841648#1 -25841648#0"/>
        <stop busStop="4628999924@6559533" duration="30.00"/>
    </vehicle>

    <vehicle id="20_train_1:5" type="pt_train" depart="2615.00" departLane="0" arrival="3336.00">
        <route edges="-446753979#15 -446753979#14 -446753979#13 -446753979#12 -446753979#11 -446753979#10 -446753979#9 -446753979#8 -446753979#7 -446753979#5 -446753979#4 -446753979#3 -446753979#2 -446753979#1 -446753979#0 -25841648#3 -25841648#2 -25841648#1 -25841648#0"/>
        <stop busStop="-4636012380" duration="30.00"/>
        <stop busStop="-4636012381" duration="30.00"/>
        <stop busStop="-278449879" duration="30.00"/>
        <stop busStop="-289555266" duration="30.00"/>
    </vehicle>

    <vehicle id="18_train_1:3" type="pt_train" depart="1655.00" departLane="0" arrival="4504.00">
        <route edges="452573164#0 452573164#1 452573164#2 452573164#3 452573164#4 452573164#6 452573164#8 452573164#9 25342835#1 25342835#2 1207582823 26428318#0 26428318#1 1038934246#0 1038934246#1 1038934246#2 1038934246#3 1038934246#3 468564875#0 468564875#1 468564875#2 468564875#3 31422046#1 31422046#2 31422046#3 25544852#1 716772051#1 716772051#2 -227891840#2 -227891840#1 -227891840#0 -25549799#2 -25549799#1 -25549799#0 25549799#0 25549799#1 25549799#2 25549799#3 227891840#1 227891840#2 227891840#3 -716772051#1 -716772051#0 -25544852#0 -31422046#2 -31422046#1 -31422046#0 -468564875#2 -468564875#1 -468564875#0 -1038934246#3 -1038934246#2 -1038934246#1 -1038934246#0 -26428318#1 -26428318#0 440619830#0 440619830#1 440619830#2 440619830#3 440619830#4 440619830#5 440619830#6 440619830#7 440619830#8 1038934239#0 -298488302#8 -298488302#7 -298488302#6 -298488302#5 -298488302#4 -298488302#3 -298488302#2 -298488302#1 -298488302#0 -440793505#10 -440793505#9 -440793505#8 -440793505#7 -440793505#6 -440793505#4 -440793505#3 -440793505#2 1122686612#0 1122686612#1 1122686612#2 1122686611#1 440793505#1 440793505#2 440793505#3 440793505#4 440793505#5 440793505#7 440793505#8 440793505#9 440793505#10 298488302#0 298488302#1 298488302#2 298488302#3 298488302#4 298488302#5 298488302#6 298488302#7 298488302#8 298488302#9 -440619830#8 -440619830#7 -440619830#6 -440619830#5 -440619830#4 -440619830#3 -440619830#2 -440619830#1 -440619830#0 26428318#0 26428318#1 1038934246#0 1038934246#1 1038934246#2 1038934246#3 468564875#0 468564875#1 468564875#2 468564875#3 31422046#1 31422046#2 31422046#3 25544852#1 716772051#1 716772051#2 -227891840#2 -227891840#1 -227891840#0 -25549799#2 -25549799#1 -25549799#0 25549799#0 25549799#1 25549799#2 25549799#3 227891840#1 227891840#2 227891840#3 -716772051#1 -716772051#0 -25544852#0 -31422046#2 -31422046#1 -31422046#0 -468564875#2 -468564875#1 -468564875#0 -1038934246#3 -1038934246#2 -1038934246#1 -1038934246#0 -26428318#1 -26428318#0 440619830#0 440619830#1 440619830#2 440619830#3 440619830#4 440619830#5 440619830#6 440619830#7 440619830#8 1038934239#0 -298488302#8 -298488302#7 -298488302#6 -298488302#5 -298488302#4 -298488302#3 -298488302#2 -298488302#1 -298488302#0 -440793505#10 -440793505#9 -440793505#8 -440793505#7 -440793505#6 -440793505#4 -440793505#3 -440793505#2 -440793505#1 -440793505#0 -446753979#15 -446753979#14 -446753979#13 -446753979#12 -446753979#11 -446753979#10 -446753979#9 -446753979#8 -446753979#7 -446753979#5 -446753979#4 -446753979#3 -446753979#2 -446753979#1 -446753979#0 -25841648#3 -25841648#2 -25841648#1 -25841648#0"/>
        <stop busStop="4628999924@6559533" duration="30.00"/>
        <stop busStop="-4636012378" duration="30.00"/>
        <stop busStop="-4636012379" duration="30.00"/>
        <stop busStop="10719766598" duration="30.00"/>
        <stop busStop="-4636012380@7357187" duration="30.00"/>
        <stop busStop="-4636012381" duration="30.00"/>
        <stop busStop="-278449879" duration="30.00"/>
        <stop busStop="-289555266" duration="30.00"/>
    </vehicle>

</routes>
